     816
 i =    25001, time =    10000.400, E =     -4699.3994654869
  C         9.5464696279        5.2523477968        4.4976072664
  C        10.6455075132        6.0351186102        4.0196547961
  C        10.2970471574        7.3880736108        3.6390228968
  C         8.9566133751        7.7301309499        3.4958163669
  C         7.9090241456        6.8241382229        3.8602395664
  C         8.2193446642        5.6174217381        4.5273258330
  C         9.8847330571        3.8126871965        4.9624711608
  C        10.4725652271        3.4597713673        6.1807275501
  H        10.6538095278        4.1871666885        7.0066425994
  C        10.7664419160        2.1608196316        6.5044438416
  H        11.2178621959        1.9173805568        7.4874601747
  C        10.0896764812        1.4875997214        4.3241704119
  H        10.1862684728        0.7008198097        3.5554028369
  C         9.5920357180        2.7951113038        4.0123983200
  H         9.1966369959        3.0579884546        2.9727310156
  C        10.5773358304        1.1472275477        5.5519436611
  P        10.9463542652       -0.5958533959        5.9816142045
  O        10.5846950750       -1.0232606345        7.3896596083
  O        10.3591238559       -1.5971603116        4.9123185756
  O        12.5156913159       -0.6276648226        5.8500862725
  H         9.3714303083       -1.4718529751        4.7413314255
  H        11.5885774473       -1.9211667439        9.4784206878
  C        12.0156610303        5.6985407069        4.3714020234
  C        12.5699933958        5.9400719141        5.6232696893
  H        12.0125881402        6.3986506279        6.4063367873
  C        13.9289767771        5.5860918043        5.9006078131
  H        14.2793306693        6.0301695149        6.8422508815
  C        13.9994458251        4.3011049477        3.8486988996
  H        14.5051159204        3.6653681076        3.1821326506
  C        12.7176244697        4.8220130369        3.4585715853
  H        12.2091033479        4.4977338279        2.5930643035
  C        14.5502331103        4.6925788021        5.0263732685
  P        16.2363905937        4.0829845886        5.3478151431
  O        16.8386730857        4.5621481535        6.6176583460
  O        17.1114045100        4.3357922060        4.0584043154
  O        15.9768752926        2.5207999614        5.4055665263
  H        16.9049285171        4.1097163291        3.0865262921
  H        15.7486990096        2.0976074796        6.2503304699
  C        11.3752148503        8.3702076040        3.4275873034
  C        11.3926335120        9.6394354582        4.0530414720
  H        10.5904731407        9.8956974522        4.7567654415
  C        12.4325778996       10.5950376804        3.7756327734
  H        12.5981111673       11.5341336346        4.3291190268
  C        13.3844869645        9.0439269414        2.1531534101
  H        14.1836869962        8.7234863218        1.4391378090
  C        12.3967843762        8.1292316561        2.4676824446
  H        12.4000697528        7.1600734706        2.0004806155
  C        13.4178119954       10.3152061196        2.7536975132
  P        14.7640604166       11.4106840277        2.4151547158
  O        15.5590174241       11.8385685575        3.6985000445
  O        14.0064663678       12.7434219988        2.0967880286
  O        15.5237122383       10.7921453950        1.2934651677
  H        13.3232634625       12.5355625113        1.3713696663
  H        16.6043316342       11.3347647642        0.4892424777
  C         8.6320822443        9.1377978408        3.2519692715
  C         8.2474509021        9.8269507946        4.4263002413
  H         8.4179009783        9.3821894801        5.3970670450
  C         8.0627469306       11.1567021429        4.3763217363
  H         7.5189501815       11.6321983988        5.1897833963
  C         8.6050432403       11.1888176998        1.9604114739
  H         8.6190670515       11.6531020649        0.9255801502
  C         8.7311744838        9.8117914075        1.9745903062
  H         9.3394545514        9.3395076273        1.1951674874
  C         8.2094964013       11.8697678767        3.1706073896
  P         8.0460506730       13.5590367143        3.1614934070
  O         7.2410783214       13.9964953774        1.8563944794
  O         7.0199120380       14.1372752387        4.2318479422
  O         9.3810737356       14.3189518821        3.2207759275
  H         4.8567397804       11.5364808424        3.2390092941
  H        10.6879663779       14.1943564993        1.9342710733
  C         6.4924436657        7.1405331920        3.4431925669
  C         5.3741748930        6.9447375932        4.2594802024
  H         5.4613874298        6.6433200990        5.3020717529
  C         4.0886758974        7.2088762267        3.6951878829
  H         3.2519348911        7.2110353983        4.4389862973
  C         5.0295140824        7.8287343235        1.5829714291
  H         5.0013553513        8.1921211608        0.5626418801
  C         6.2986499055        7.5278772688        2.1454294109
  H         7.2351815039        7.7218149933        1.5306006899
  C         3.9091445345        7.6505284405        2.3889647193
  P         2.2498892047        7.7772713736        1.6107388548
  O         1.7161661543        6.3110414710        1.5008616814
  O         1.3453877655        8.2882343918        2.8406777338
  O         2.2047430969        8.5678839522        0.3106353446
  H         1.8277518288        6.7346275510        7.8399167567
  H         1.7344096413        8.9176861250        3.5470700531
  C         7.1973418315        4.4836309807        4.9125680208
  C         7.2192041644        3.8018927389        6.1293305575
  H         8.0675302022        4.1673294805        6.7163977349
  C         6.3928990417        2.7256758315        6.3026281263
  H         6.3739652312        2.2346409385        7.2526580452
  C         5.3511646312        3.1149122723        4.0928740156
  H         4.5096197677        2.9277630863        3.4388373236
  C         6.3037684799        4.0835842655        3.8496724198
  H         6.1979698364        4.7150647976        2.9960039899
  C         5.4381690743        2.3825269933        5.3245663653
  P         4.0991475613        1.1393561977        5.6551223638
  O         2.9923690822        1.6243447353        6.5832425485
  O         4.6419544336       -0.1681128593        6.1453204980
  O         3.4957273122        0.7777310217        4.2434559101
  H         4.7388438134       -0.3286481289        7.0937438129
  H         4.2181689242        0.5024151696        3.6481955558
  C         9.6651410661        4.7374723371       10.5571192443
  C        10.7491252763        5.7253838018       10.4366538518
  C        10.5241954499        7.0040539128       10.1436131533
  C         9.0963547575        7.4203542650        9.8183450434
  C         8.0374787056        6.4920365768       10.0169029813
  C         8.3576064642        5.1121593223       10.3697087402
  C         9.8616600881        3.2315488088       10.7836854425
  C         9.2687739634        2.4424258883       11.7991516752
  H         8.6414399799        3.0498934217       12.3966736850
  C         9.5310022868        1.0811159423       11.9825302496
  H         9.1863129007        0.5328823306       12.8516812168
  C        10.8755422337        1.0977756248        9.9962556592
  H        11.3470690538        0.5108769538        9.2424571669
  C        10.7184234175        2.5402610243        9.8802710392
  H        11.2672227647        3.0536793009        9.0642915671
  C        10.3495275942        0.3921263267       11.1301958339
  P        10.5559191001       -1.4519191908       11.3814601639
  O        11.7594326405       -1.7135424205       10.3886376868
  O        11.0214257195       -1.8933491195       12.7922267630
  O         9.3151225226       -2.2072540897       10.9042436705
  H        11.7239959962       -1.1134824468       14.1216549491
  H         8.4107034141       -1.6596734547       10.6880703705
  C        12.0453909987        5.2935596785       11.0286591377
  C        12.0761234903        4.5016525001       12.1897892522
  H        11.2514703935        4.2958886478       12.8709867998
  C        13.3154483547        3.9725814149       12.6298811828
  H        13.3681295481        3.2918500402       13.5039158957
  C        14.4602023760        5.1841713364       10.9030081314
  H        15.3808791680        5.5059573536       10.3814629470
  C        13.2461472774        5.7456855685       10.4813323131
  H        13.1860932567        6.3778027626        9.6567503921
  C        14.5356596579        4.2986556664       11.9400048449
  P        16.0769404559        3.6095585433       12.6428486844
  O        17.2780413330        4.1080909915       11.7194743527
  O        15.9877727364        2.0473179929       12.5510352633
  O        16.2798341173        4.2689596494       13.9683871617
  H        15.2260668805        1.6561485175       10.5546213340
  H        15.9363726294        5.5940947101       14.5734877901
  C        11.5885614007        8.0444738272        9.9795512386
  C        12.1106572128        8.6097445270       11.1952758633
  H        11.7153747664        8.0835237515       12.0507332462
  C        12.9254317485        9.7256724313       11.0620973296
  H        13.2010275349       10.2644212968       11.9563703029
  C        12.9881359427        9.4660102722        8.5733169712
  H        13.4116401931        9.5525413379        7.5960379828
  C        11.9583130349        8.4471220361        8.6497479393
  H        11.5829698348        8.0156918188        7.7467690292
  C        13.4875976488       10.0787891470        9.7438272456
  P        14.6916455790       11.3993454519        9.6268348249
  O        16.0622559028       10.6247663639        9.7805395092
  O        14.6135303476       12.2381621983       10.9630995468
  O        14.8576110768       12.0843151681        8.3013400434
  H         9.3310570380       15.0123711003        7.2567743057
  H        16.5784144143       11.8432229437        7.6344474230
  C         8.7408996692        8.7774069656        9.3529241425
  C         9.0309273571        9.8107725764       10.2144278853
  H         9.7619160740        9.7845418086       11.0528445865
  C         8.4214825917       11.1181590015        9.8762885478
  H         8.6302388693       12.0018994024       10.5097670875
  C         7.3319585884       10.1830725563        7.9580801587
  H         6.7616563597       10.2728972918        7.0613588610
  C         7.9465744446        8.9885969078        8.1911773450
  H         7.7032240705        8.0421987802        7.6111151237
  C         7.4626790530       11.1935375168        8.8737943592
  P         6.7866487515       12.9116529042        8.7756546196
  O         5.8124276138       13.0933643927        9.8912957041
  O         8.0534516209       13.8604771584        8.8601335961
  O         6.2259626810       12.9915893067        7.3014266532
  H         8.3538974793       14.5053956649        9.5327196424
  H         5.2771668313       11.8663550829       10.8982407225
  C         6.6247767583        6.9445543465        9.8236278333
  C         6.1290325292        8.0532024401       10.4728628698
  H         6.8379050217        8.5464164693       11.1020654359
  C         4.8181564820        8.4836913536       10.2307680574
  H         4.3671982142        9.3935155322       10.7303897207
  C         4.5615209209        6.6736152709        8.5940735373
  H         3.9302726153        6.0183684197        7.8264176991
  C         5.7805683485        6.2145797233        8.8927917001
  H         6.0929032887        5.2396070729        8.5365256345
  C         4.0938792982        7.8712714017        9.1407276330
  P         2.3926853753        8.4198480623        8.9157190308
  O         1.4521141721        7.1829657044        8.6145681195
  O         1.8558052448        9.2363825990       10.1964840589
  O         2.2983187797        9.3668167762        7.7160836289
  H         1.6586583382        8.9357971872       11.1359313961
  H         3.2240054409       10.3283109535        6.8906556292
  C         7.1185179798        4.2160940508       10.6463008490
  C         6.4697272259        4.2780402516       11.9098833000
  H         6.8991546247        4.8878443190       12.6456108907
  C         5.4171272858        3.5114051820       12.2617059425
  H         5.1028381964        3.5929040803       13.3042505282
  C         5.7379322860        2.3202598465       10.1534538318
  H         5.3279120332        1.6617360207        9.4105896480
  C         6.6834608791        3.2477204598        9.8020337710
  H         7.1649989845        3.2425571780        8.7769456308
  C         5.0807428213        2.4362528806       11.4763773829
  P         4.1490679731        1.0667362256       11.9213501314
  O         3.2677230383        1.1419311462       13.1309847017
  O         5.2241793235       -0.0823963092       12.3099886810
  O         3.3964970932        0.5061918138       10.5272196817
  H         5.9786138971       -0.2668553840       11.6754109724
  H         3.3874191876        3.9288514187        9.2519944241
  C        16.8105175414       17.3450018910        4.0218081610
  C        17.7626026565       18.2375449834        3.4980657569
  C        17.3757126119       19.4068730843        2.8794788459
  C        16.0014671000       19.7430424503        2.8270521096
  C        15.0255852731       18.8105827783        3.2253638587
  C        15.4237714038       17.6020539810        3.8687073191
  C        17.2763416599       16.1793575223        4.7190544745
  C        17.0120877346       15.7382266507        6.0058345147
  H        16.5863071444       16.3461337814        6.7724168106
  C        17.3996445500       14.4733881187        6.3856092827
  H        17.2214261805       14.3448361593        7.4773776914
  C        17.9561145921       13.8821207340        4.1573851685
  H        18.3468022246       13.1379339274        3.5252251959
  C        17.8205169850       15.1911758349        3.8018209922
  H        17.8396047340       15.5252056410        2.7939059502
  C        17.8221579813       13.4960350099        5.5302035690
  P        18.1148992056       11.7946125199        6.0480882776
  O        17.6259653405       11.6961625527        7.5279513796
  O        17.5464658926       10.7492702947        5.0689909335
  O        19.6952041450       11.7005473673        6.2504077124
  H        16.1638595878       11.1578270104        4.0475670642
  H        20.0550382217       12.3865007002        6.9081767586
  C        19.2205021284       18.0222589563        3.7152712890
  C        19.7499755282       17.8429863393        5.0276019100
  H        18.9865964403       17.8809552999        5.8003045803
  C        21.1157176491       17.8083388715        5.2393513653
  H        21.4867752525       17.8194569329        6.2787116643
  C        21.3098054361       17.3092614826        2.8424472745
  H        21.8974560810       16.7386564014        2.0612601872
  C        20.0214693645       17.7613935309        2.5993083030
  H        19.4786198074       17.6987612958        1.6528289061
  C        21.9354798910       17.4640716479        4.1424665310
  P        23.5707564555       16.8260410158        4.5866028889
  O        24.5292437737       17.7090522176        5.3183535390
  O        24.0606280478       16.1546609832        3.1908040883
  O        23.1004690932       15.5384661596        5.4721952873
  H        23.5395723577       15.2858504064        3.0630865296
  H        23.7664583636       14.9803481559        5.8931863833
  C        18.3071074077       20.5358320433        2.4212597918
  C        19.2169156140       21.1971997813        3.2295474156
  H        19.2406505911       21.0000403080        4.2767436238
  C        20.1459332174       22.1906742384        2.8518652462
  H        20.8848769082       22.6530167934        3.5753518222
  C        19.0688883599       21.9727825874        0.6261341108
  H        19.0762113075       22.2134236265       -0.3922208150
  C        18.2208342099       20.9913221607        1.0735826263
  H        17.3745111112       20.6361230685        0.4769147837
  C        20.0561032187       22.6082100111        1.5240906372
  P        21.2089418388       23.7670591495        0.8111490512
  O        22.3832795561       24.0077999921        1.8016940819
  O        20.5721749073       25.0666068687        0.3888039179
  O        21.7972225664       23.0272241556       -0.4573801412
  H        19.6927027899       25.5810333115       -1.0355465799
  H        22.7111059838       23.3067370342       -0.6610583069
  C        15.5969976106       21.1795558048        2.4404439609
  C        15.9984911303       22.1894384668        3.3433294880
  H        16.6380345418       21.9308867243        4.1234788146
  C        15.3715306992       23.4493850971        3.3200157905
  H        15.5997342733       24.1684569573        4.0507277538
  C        14.2867692064       22.8854688794        1.2683027381
  H        13.7039881917       23.2080708845        0.4552419263
  C        14.8162420386       21.5256566774        1.3003900577
  H        14.4766736051       20.8353118438        0.4531494370
  C        14.4923902717       23.7847420730        2.2817621257
  P        13.5995813379       25.3408676242        2.3224434514
  O        11.9906024723       25.0144752210        2.3463908627
  O        13.8473320986       25.9458347500        3.8300746574
  O        13.8754377854       26.3115686295        1.2066223188
  H        13.3051991605       25.5028260178        4.5504493258
  H        15.1761040127       26.9751482255        0.6909979600
  C        13.5374777583       19.1939754142        3.0809293991
  C        13.0427593954       20.3446709294        3.6569625243
  H        13.8371637123       20.9051863566        4.1607028644
  C        11.7208045948       20.7254212631        3.4341791088
  H        11.1826277469       21.4691605100        4.0828686665
  C        11.4843362832       18.7797148611        1.8693477280
  H        10.9430149839       18.0480518512        1.2969010856
  C        12.8031012423       18.4780740778        2.0885302228
  H        13.2382023788       17.6465500774        1.5319511450
  C        10.8977956651       19.8770307211        2.6227113662
  P         9.1701681881       20.3808146414        2.3732825087
  O         8.4669088102       19.4580868152        1.5053984403
  O         8.3786176220       20.5379479720        3.7237856563
  O         9.3130323844       21.8786116973        1.7545310642
  H         9.0101591666       20.9893286577        4.3787565265
  H        10.1546802776       22.2036825671        1.3187524249
  C        14.4859579153       16.6201884449        4.4618697371
  C        13.6100017468       16.9787001183        5.4945850043
  H        13.6384866644       18.0390154558        5.8516469879
  C        12.6210788172       16.1288342649        6.0587479651
  H        11.8489289257       16.4872979372        6.6754110389
  C        13.5894343573       14.3829183209        4.6574723878
  H        13.6876356466       13.3136775220        4.3397930905
  C        14.4811158688       15.2787914800        3.9717023886
  H        15.1715911158       15.0812137581        3.1914849726
  C        12.6702432252       14.7383550169        5.6962946590
  P        11.5789510473       13.5447836619        6.4362130652
  O        10.8378017513       14.0785223954        7.5833831602
  O        12.4484384473       12.1557837712        6.6708335231
  O        10.6009238177       12.9492986748        5.3593143950
  H        13.2670582934       12.2996309994        7.2398340607
  H        10.2817872044       13.5875709101        4.5944118209
  C        16.8680637501       17.7247502393       10.2437784782
  C        17.8870125430       18.6109904146        9.8664575683
  C        17.6153230099       19.8162483227        9.1993951919
  C        16.2637149855       20.2262365795        9.0390448076
  C        15.2100823741       19.2449665521        9.3062932070
  C        15.5091352436       18.0137505546        9.9322060816
  C        17.2710054248       16.4120354550       10.8137236945
  C        17.8619181104       16.2706869235       12.1650120381
  H        17.7805359668       17.2413422792       12.7441666598
  C        18.2554496713       14.9532655835       12.5892313922
  H        18.7748304696       14.9149045199       13.5219327150
  C        17.2223010315       13.9595353997       10.5313408034
  H        16.9525526159       13.0853139670        9.9447419457
  C        16.8718102430       15.2492394678       10.0751070865
  H        16.2968185944       15.4484401266        9.2044570140
  C        17.9385698648       13.7967351970       11.7343878257
  P        18.5581709268       12.2142939995       12.0544916068
  O        19.4155085925       11.7360376303       10.8211084863
  O        19.4279498318       12.1212035638       13.2988614964
  O        17.3370188250       11.1888256158       12.0569540823
  H        20.1516393912       13.1800959860       13.8455578123
  H        16.5737189308       10.8116536929       10.6949926868
  C        19.3348625956       18.3587834962       10.1630311848
  C        19.8105945311       18.8698347639       11.3179755718
  H        19.1222640634       19.4629438769       11.9659548376
  C        21.1632312505       18.7052301665       11.7591805670
  H        21.5825966359       19.0126446804       12.6994223285
  C        21.5301987037       17.4448038188        9.5992372866
  H        22.2505974277       16.8594633907        9.0057571107
  C        20.1836646748       17.6669847053        9.2914808765
  H        19.8090304179       17.3102173107        8.3593740211
  C        21.9676013882       17.9251708810       10.9365907291
  P        23.5474942264       17.5323573344       11.6957112521
  O        24.5573302157       17.5767206059       10.4538398664
  O        23.3036619648       16.1210814502       12.3877703654
  O        23.9461753727       18.4367024127       12.8034831378
  H        21.8241697883       13.7848179746       10.7223545411
  H        23.4656077396       19.1412351523       14.1970917175
  C        18.6195513593       20.7911398739        8.5938327151
  C        18.8916318909       21.9605941953        9.2879606784
  H        18.5120145418       22.0586550700       10.2576086874
  C        19.8195638540       22.8961279242        8.8137640756
  H        20.0944993150       23.8356317325        9.3155101594
  C        20.1549095434       21.5252515959        6.8110464672
  H        20.6257060170       21.2745361456        5.8891955085
  C        19.2344209802       20.6179695534        7.2992675752
  H        18.8537992946       19.7689471164        6.6987763060
  C        20.3548552559       22.7357853286        7.5285155070
  P        21.2947658538       24.1516399171        6.7054901374
  O        22.1701578267       24.9706491486        7.7703577576
  O        20.2278071948       25.3460242904        6.5184258653
  O        21.9195835605       23.7060145439        5.4676676393
  H        19.5434389214       25.2113710668        5.6984114285
  H        23.5273404941       23.6249293368        5.5961440372
  C        15.9356769722       21.6440581114        8.9215079783
  C        15.3493121512       22.3310495798       10.0431329657
  H        15.1893811005       21.7852971744       10.9525643095
  C        14.9656187739       23.6690669475        9.9843243763
  H        14.5735510713       24.1190881391       10.8567121893
  C        15.7224649155       23.7125704234        7.6178434143
  H        15.9426677763       24.2625544269        6.6842561921
  C        16.1156444302       22.3808616200        7.6946502880
  H        16.4848818866       21.8994103396        6.7898860722
  C        15.1545080140       24.3908654738        8.7617526539
  P        14.7098098459       26.0705787292        8.4905197830
  O        14.5377824542       26.6027580984       10.0151538770
  O        15.8773132362       26.8704981361        7.7692320904
  O        13.4091851858       26.3685545924        7.8083145062
  H        16.8234696007       26.3459691992        7.8769884819
  H        12.8958283962       25.3258757329        6.6481162175
  C        13.8241563493       19.6035776342        9.0227129084
  C        12.7281494211       19.5664772839        9.9125980281
  H        12.8732175752       19.1094387622       10.8690085968
  C        11.4981578345       19.9562818315        9.4238414101
  H        10.5891876215       19.8147620757       10.0000181717
  C        12.3120209243       20.5536651978        7.1625192147
  H        12.0501817662       21.0748787129        6.1956022561
  C        13.5948564868       20.1370264235        7.6909059111
  H        14.4752711719       20.0861160180        6.9345532342
  C        11.2641355987       20.4684551832        8.0497208500
  P         9.6227872603       20.9166684663        7.3441673571
  O         9.8744821050       21.2240098971        5.9195414351
  O         8.4396300283       19.9646628110        7.8550338391
  O         9.1511339187       22.2269292460        8.1179402087
  H         8.7975057542       19.0524275521        7.5613420896
  H         9.8232156364       23.0788655740        7.9640710876
  C        14.4545293879       17.0179986282       10.3765817713
  C        14.2794776102       16.8853439961       11.7483276020
  H        14.8328353180       17.4001576976       12.5044463962
  C        13.3787987025       15.9470103009       12.2775067991
  H        13.3311212120       15.8555533094       13.3366623361
  C        12.6790258441       15.3105268901       10.1116250090
  H        11.9789505416       14.7958495302        9.4681658410
  C        13.5711669333       16.2333696758        9.5943318160
  H        13.6123994698       16.3059567438        8.5764229950
  C        12.4548514584       15.2662458246       11.5021059770
  P        11.5808319185       13.9334212468       12.3231926962
  O        11.4953972007       14.3992849975       13.8502858744
  O        12.4421409209       12.7338309378       12.1813999616
  O        10.1659435439       13.6937182141       11.7673410900
  H        13.7246210988       12.6242358528       11.3240468231
  H         9.8250433166       14.5354393476       11.2445306749
  C        24.2299834699        4.7894406931        3.7897455510
  C        25.2071014369        5.7464499285        3.5797857922
  C        24.8841947764        7.0433098487        3.0362207569
  C        23.5435874564        7.3278383863        2.8388947518
  C        22.6079713879        6.2702207917        2.9820264769
  C        22.9284528841        4.9851415795        3.2984765850
  C        24.6538403400        3.3043204232        4.0698587116
  C        24.9394948260        2.9473235544        5.4267324001
  H        25.1041132852        3.6492584687        6.2668017761
  C        25.0348924501        1.5644429765        5.7127163507
  H        25.0496781957        1.3085580106        6.8311089304
  C        24.8441410369        0.9845497844        3.3390457761
  H        24.9951245083        0.2720950421        2.5524864845
  C        24.5724542349        2.3297914748        3.0188876690
  H        24.2953261676        2.6335420114        1.9557914115
  C        24.9817310428        0.6115239079        4.7242142066
  P        25.6067604135       -1.0236857477        5.1013590857
  O        24.4703263983       -1.7503041532        5.9855392835
  O        25.8918253101       -1.7000801320        3.6965670991
  O        26.9329295847       -1.0018187206        5.8286391212
  H        25.0851869578       -2.2320799354        3.3040846160
  H        27.1260691360       -0.1186512232        6.9953060256
  C        26.6491926283        5.5175040357        4.0919204818
  C        27.1782893944        6.4604470695        4.9667124038
  H        26.5462766642        7.2974943136        5.2700241880
  C        28.4884628269        6.3145903909        5.5295609567
  H        28.8609714677        7.0586397130        6.2402255254
  C        28.7605340365        4.3972269763        4.1045207450
  H        29.3506445164        3.5955692780        3.6844729950
  C        27.4532579747        4.4237284760        3.6796123188
  H        27.0685241219        3.6560368199        3.0545471127
  C        29.2900926015        5.2816860578        5.1249386197
  P        30.8964983101        5.0387237201        5.7208369338
  O        31.5438864336        6.2404087689        6.3145764842
  O        31.8556732985        4.3926061643        4.5956119801
  O        30.5776284224        3.8337934329        6.6290617738
  H        32.2966301826        4.9961342557        4.0129226548
  H        31.2898509665        3.1341221871        6.7368514120
  C        25.8991894032        8.0755380492        2.7828168896
  C        25.6641724033        9.3927910373        3.2544218151
  H        24.9046794282        9.6464880304        4.0160020977
  C        26.4009086311       10.4231243659        2.6490817950
  H        26.2935137913       11.4349029058        2.9757912274
  C        27.8206604204        8.7825530771        1.4151418915
  H        28.6419831174        8.4641904673        0.8176677119
  C        27.0146944802        7.7816893304        2.0636923733
  H        27.4012295816        6.7033361903        1.9594955282
  C        27.5581629884       10.1209815591        1.8816966331
  P        28.6133476785       11.4733587178        1.4284687840
  O        29.5331769451       11.8906658385        2.7174465171
  O        27.9720757383       12.7293933298        0.9729831507
  O        29.6751657581       10.9125843446        0.3416701676